+ 0.237137 /NodeList/4/DeviceList/3/$ns3::CsmaNetDevice/TxQueue/Enqueue ns3::EthernetHeader ( length/type=0x800, source=00:00:00:00:00:0b, destination=01:00:5e:00:00:09) ns3::Ipv4Header (tos 0x0 DSCP Default ECN Not-ECT ttl 1 id 0 protocol 17 offset (bytes) 0 flags [none] length: 52 192.168.6.1 > 224.0.0.9) ns3::UdpHeader (length: 32 520 > 520) ns3::RipHeader (command 1 | prefix 0.0.0.0/0 Metric 16 Tag 0 Next Hop 0.0.0.0) ns3::EthernetTrailer (fcs=0)
- 0.237137 /NodeList/4/DeviceList/3/$ns3::CsmaNetDevice/TxQueue/Dequeue ns3::EthernetHeader ( length/type=0x800, source=00:00:00:00:00:0b, destination=01:00:5e:00:00:09) ns3::Ipv4Header (tos 0x0 DSCP Default ECN Not-ECT ttl 1 id 0 protocol 17 offset (bytes) 0 flags [none] length: 52 192.168.6.1 > 224.0.0.9) ns3::UdpHeader (length: 32 520 > 520) ns3::RipHeader (command 1 | prefix 0.0.0.0/0 Metric 16 Tag 0 Next Hop 0.0.0.0) ns3::EthernetTrailer (fcs=0)
+ 0.237137 /NodeList/4/DeviceList/2/$ns3::CsmaNetDevice/TxQueue/Enqueue ns3::EthernetHeader ( length/type=0x800, source=00:00:00:00:00:0a, destination=01:00:5e:00:00:09) ns3::Ipv4Header (tos 0x0 DSCP Default ECN Not-ECT ttl 1 id 0 protocol 17 offset (bytes) 0 flags [none] length: 52 192.168.5.2 > 224.0.0.9) ns3::UdpHeader (length: 32 520 > 520) ns3::RipHeader (command 1 | prefix 0.0.0.0/0 Metric 16 Tag 0 Next Hop 0.0.0.0) ns3::EthernetTrailer (fcs=0)
- 0.237137 /NodeList/4/DeviceList/2/$ns3::CsmaNetDevice/TxQueue/Dequeue ns3::EthernetHeader ( length/type=0x800, source=00:00:00:00:00:0a, destination=01:00:5e:00:00:09) ns3::Ipv4Header (tos 0x0 DSCP Default ECN Not-ECT ttl 1 id 0 protocol 17 offset (bytes) 0 flags [none] length: 52 192.168.5.2 > 224.0.0.9) ns3::UdpHeader (length: 32 520 > 520) ns3::RipHeader (command 1 | prefix 0.0.0.0/0 Metric 16 Tag 0 Next Hop 0.0.0.0) ns3::EthernetTrailer (fcs=0)
+ 0.237137 /NodeList/4/DeviceList/1/$ns3::CsmaNetDevice/TxQueue/Enqueue ns3::EthernetHeader ( length/type=0x800, source=00:00:00:00:00:06, destination=01:00:5e:00:00:09) ns3::Ipv4Header (tos 0x0 DSCP Default ECN Not-ECT ttl 1 id 0 protocol 17 offset (bytes) 0 flags [none] length: 52 192.168.3.2 > 224.0.0.9) ns3::UdpHeader (length: 32 520 > 520) ns3::RipHeader (command 1 | prefix 0.0.0.0/0 Metric 16 Tag 0 Next Hop 0.0.0.0) ns3::EthernetTrailer (fcs=0)
- 0.237137 /NodeList/4/DeviceList/1/$ns3::CsmaNetDevice/TxQueue/Dequeue ns3::EthernetHeader ( length/type=0x800, source=00:00:00:00:00:06, destination=01:00:5e:00:00:09) ns3::Ipv4Header (tos 0x0 DSCP Default ECN Not-ECT ttl 1 id 0 protocol 17 offset (bytes) 0 flags [none] length: 52 192.168.3.2 > 224.0.0.9) ns3::UdpHeader (length: 32 520 > 520) ns3::RipHeader (command 1 | prefix 0.0.0.0/0 Metric 16 Tag 0 Next Hop 0.0.0.0) ns3::EthernetTrailer (fcs=0)
r 0.239249 /NodeList/3/DeviceList/2/$ns3::CsmaNetDevice/MacRx ns3::EthernetHeader ( length/type=0x800, source=00:00:00:00:00:0a, destination=01:00:5e:00:00:09) ns3::Ipv4Header (tos 0x0 DSCP Default ECN Not-ECT ttl 1 id 0 protocol 17 offset (bytes) 0 flags [none] length: 52 192.168.5.2 > 224.0.0.9) ns3::UdpHeader (length: 32 520 > 520) ns3::RipHeader (command 1 | prefix 0.0.0.0/0 Metric 16 Tag 0 Next Hop 0.0.0.0) ns3::EthernetTrailer (fcs=0)
r 0.241417 /NodeList/5/DeviceList/1/$ns3::CsmaNetDevice/MacRx ns3::EthernetHeader ( length/type=0x800, source=00:00:00:00:00:0b, destination=01:00:5e:00:00:09) ns3::Ipv4Header (tos 0x0 DSCP Default ECN Not-ECT ttl 1 id 0 protocol 17 offset (bytes) 0 flags [none] length: 52 192.168.6.1 > 224.0.0.9) ns3::UdpHeader (length: 32 520 > 520) ns3::RipHeader (command 1 | prefix 0.0.0.0/0 Metric 16 Tag 0 Next Hop 0.0.0.0) ns3::EthernetTrailer (fcs=0)
r 0.241417 /NodeList/1/DeviceList/2/$ns3::CsmaNetDevice/MacRx ns3::EthernetHeader ( length/type=0x800, source=00:00:00:00:00:06, destination=01:00:5e:00:00:09) ns3::Ipv4Header (tos 0x0 DSCP Default ECN Not-ECT ttl 1 id 0 protocol 17 offset (bytes) 0 flags [none] length: 52 192.168.3.2 > 224.0.0.9) ns3::UdpHeader (length: 32 520 > 520) ns3::RipHeader (command 1 | prefix 0.0.0.0/0 Metric 16 Tag 0 Next Hop 0.0.0.0) ns3::EthernetTrailer (fcs=0)
+ 0.246417 /NodeList/1/DeviceList/2/$ns3::CsmaNetDevice/TxQueue/Enqueue ns3::EthernetHeader ( length/type=0x806, source=00:00:00:00:00:05, destination=ff:ff:ff:ff:ff:ff) ns3::ArpHeader (hardware type: Ethernet request source mac: 00-06-00:00:00:00:00:05 source ipv4: 192.168.3.1 dest ipv4: 192.168.3.2) Payload (size=18) ns3::EthernetTrailer (fcs=0)
- 0.246417 /NodeList/1/DeviceList/2/$ns3::CsmaNetDevice/TxQueue/Dequeue ns3::EthernetHeader ( length/type=0x806, source=00:00:00:00:00:05, destination=ff:ff:ff:ff:ff:ff) ns3::ArpHeader (hardware type: Ethernet request source mac: 00-06-00:00:00:00:00:05 source ipv4: 192.168.3.1 dest ipv4: 192.168.3.2) Payload (size=18) ns3::EthernetTrailer (fcs=0)
+ 0.248249 /NodeList/3/DeviceList/2/$ns3::CsmaNetDevice/TxQueue/Enqueue ns3::EthernetHeader ( length/type=0x806, source=00:00:00:00:00:09, destination=ff:ff:ff:ff:ff:ff) ns3::ArpHeader (hardware type: Ethernet request source mac: 00-06-00:00:00:00:00:09 source ipv4: 192.168.5.1 dest ipv4: 192.168.5.2) Payload (size=18) ns3::EthernetTrailer (fcs=0)
- 0.248249 /NodeList/3/DeviceList/2/$ns3::CsmaNetDevice/TxQueue/Dequeue ns3::EthernetHeader ( length/type=0x806, source=00:00:00:00:00:09, destination=ff:ff:ff:ff:ff:ff) ns3::ArpHeader (hardware type: Ethernet request source mac: 00-06-00:00:00:00:00:09 source ipv4: 192.168.5.1 dest ipv4: 192.168.5.2) Payload (size=18) ns3::EthernetTrailer (fcs=0)
r 0.250351 /NodeList/4/DeviceList/2/$ns3::CsmaNetDevice/MacRx ns3::EthernetHeader ( length/type=0x806, source=00:00:00:00:00:09, destination=ff:ff:ff:ff:ff:ff) ns3::ArpHeader (hardware type: Ethernet request source mac: 00-06-00:00:00:00:00:09 source ipv4: 192.168.5.1 dest ipv4: 192.168.5.2) Payload (size=18) ns3::EthernetTrailer (fcs=0)
+ 0.250351 /NodeList/4/DeviceList/2/$ns3::CsmaNetDevice/TxQueue/Enqueue ns3::EthernetHeader ( length/type=0x806, source=00:00:00:00:00:0a, destination=00:00:00:00:00:09) ns3::ArpHeader (hardware type: Ethernet reply source mac: 00-06-00:00:00:00:00:0a source ipv4: 192.168.5.2 dest mac: 00-06-00:00:00:00:00:09 dest ipv4: 192.168.5.1) Payload (size=18) ns3::EthernetTrailer (fcs=0)
- 0.250351 /NodeList/4/DeviceList/2/$ns3::CsmaNetDevice/TxQueue/Dequeue ns3::EthernetHeader ( length/type=0x806, source=00:00:00:00:00:0a, destination=00:00:00:00:00:09) ns3::ArpHeader (hardware type: Ethernet reply source mac: 00-06-00:00:00:00:00:0a source ipv4: 192.168.5.2 dest mac: 00-06-00:00:00:00:00:09 dest ipv4: 192.168.5.1) Payload (size=18) ns3::EthernetTrailer (fcs=0)
+ 0.250417 /NodeList/5/DeviceList/1/$ns3::CsmaNetDevice/TxQueue/Enqueue ns3::EthernetHeader ( length/type=0x806, source=00:00:00:00:00:0c, destination=ff:ff:ff:ff:ff:ff) ns3::ArpHeader (hardware type: Ethernet request source mac: 00-06-00:00:00:00:00:0c source ipv4: 192.168.6.2 dest ipv4: 192.168.6.1) Payload (size=18) ns3::EthernetTrailer (fcs=0)
- 0.250417 /NodeList/5/DeviceList/1/$ns3::CsmaNetDevice/TxQueue/Dequeue ns3::EthernetHeader ( length/type=0x806, source=00:00:00:00:00:0c, destination=ff:ff:ff:ff:ff:ff) ns3::ArpHeader (hardware type: Ethernet request source mac: 00-06-00:00:00:00:00:0c source ipv4: 192.168.6.2 dest ipv4: 192.168.6.1) Payload (size=18) ns3::EthernetTrailer (fcs=0)
r 0.250673 /NodeList/4/DeviceList/1/$ns3::CsmaNetDevice/MacRx ns3::EthernetHeader ( length/type=0x806, source=00:00:00:00:00:05, destination=ff:ff:ff:ff:ff:ff) ns3::ArpHeader (hardware type: Ethernet request source mac: 00-06-00:00:00:00:00:05 source ipv4: 192.168.3.1 dest ipv4: 192.168.3.2) Payload (size=18) ns3::EthernetTrailer (fcs=0)
+ 0.250673 /NodeList/4/DeviceList/1/$ns3::CsmaNetDevice/TxQueue/Enqueue ns3::EthernetHeader ( length/type=0x806, source=00:00:00:00:00:06, destination=00:00:00:00:00:05) ns3::ArpHeader (hardware type: Ethernet reply source mac: 00-06-00:00:00:00:00:06 source ipv4: 192.168.3.2 dest mac: 00-06-00:00:00:00:00:05 dest ipv4: 192.168.3.1) Payload (size=18) ns3::EthernetTrailer (fcs=0)
- 0.250673 /NodeList/4/DeviceList/1/$ns3::CsmaNetDevice/TxQueue/Dequeue ns3::EthernetHeader ( length/type=0x806, source=00:00:00:00:00:06, destination=00:00:00:00:00:05) ns3::ArpHeader (hardware type: Ethernet reply source mac: 00-06-00:00:00:00:00:06 source ipv4: 192.168.3.2 dest mac: 00-06-00:00:00:00:00:05 dest ipv4: 192.168.3.1) Payload (size=18) ns3::EthernetTrailer (fcs=0)
r 0.252454 /NodeList/3/DeviceList/2/$ns3::CsmaNetDevice/MacRx ns3::EthernetHeader ( length/type=0x806, source=00:00:00:00:00:0a, destination=00:00:00:00:00:09) ns3::ArpHeader (hardware type: Ethernet reply source mac: 00-06-00:00:00:00:00:0a source ipv4: 192.168.5.2 dest mac: 00-06-00:00:00:00:00:09 dest ipv4: 192.168.5.1) Payload (size=18) ns3::EthernetTrailer (fcs=0)
+ 0.252454 /NodeList/3/DeviceList/2/$ns3::CsmaNetDevice/TxQueue/Enqueue ns3::EthernetHeader ( length/type=0x800, source=00:00:00:00:00:09, destination=00:00:00:00:00:0a) ns3::Ipv4Header (tos 0x0 DSCP Default ECN Not-ECT ttl 255 id 0 protocol 17 offset (bytes) 0 flags [none] length: 72 192.168.5.1 > 192.168.5.2) ns3::UdpHeader (length: 52 520 > 520) ns3::RipHeader (command 2 | prefix 192.168.4.0/24 Metric 1 Tag 0 Next Hop 0.0.0.0 | prefix 192.168.5.0/24 Metric 16 Tag 0 Next Hop 0.0.0.0) ns3::EthernetTrailer (fcs=0)
- 0.252454 /NodeList/3/DeviceList/2/$ns3::CsmaNetDevice/TxQueue/Dequeue ns3::EthernetHeader ( length/type=0x800, source=00:00:00:00:00:09, destination=00:00:00:00:00:0a) ns3::Ipv4Header (tos 0x0 DSCP Default ECN Not-ECT ttl 255 id 0 protocol 17 offset (bytes) 0 flags [none] length: 72 192.168.5.1 > 192.168.5.2) ns3::UdpHeader (length: 52 520 > 520) ns3::RipHeader (command 2 | prefix 192.168.4.0/24 Metric 1 Tag 0 Next Hop 0.0.0.0 | prefix 192.168.5.0/24 Metric 16 Tag 0 Next Hop 0.0.0.0) ns3::EthernetTrailer (fcs=0)
r 0.254599 /NodeList/4/DeviceList/2/$ns3::CsmaNetDevice/MacRx ns3::EthernetHeader ( length/type=0x800, source=00:00:00:00:00:09, destination=00:00:00:00:00:0a) ns3::Ipv4Header (tos 0x0 DSCP Default ECN Not-ECT ttl 255 id 0 protocol 17 offset (bytes) 0 flags [none] length: 72 192.168.5.1 > 192.168.5.2) ns3::UdpHeader (length: 52 520 > 520) ns3::RipHeader (command 2 | prefix 192.168.4.0/24 Metric 1 Tag 0 Next Hop 0.0.0.0 | prefix 192.168.5.0/24 Metric 16 Tag 0 Next Hop 0.0.0.0) ns3::EthernetTrailer (fcs=0)
r 0.254673 /NodeList/4/DeviceList/3/$ns3::CsmaNetDevice/MacRx ns3::EthernetHeader ( length/type=0x806, source=00:00:00:00:00:0c, destination=ff:ff:ff:ff:ff:ff) ns3::ArpHeader (hardware type: Ethernet request source mac: 00-06-00:00:00:00:00:0c source ipv4: 192.168.6.2 dest ipv4: 192.168.6.1) Payload (size=18) ns3::EthernetTrailer (fcs=0)
+ 0.254673 /NodeList/4/DeviceList/3/$ns3::CsmaNetDevice/TxQueue/Enqueue ns3::EthernetHeader ( length/type=0x806, source=00:00:00:00:00:0b, destination=00:00:00:00:00:0c) ns3::ArpHeader (hardware type: Ethernet reply source mac: 00-06-00:00:00:00:00:0b source ipv4: 192.168.6.1 dest mac: 00-06-00:00:00:00:00:0c dest ipv4: 192.168.6.2) Payload (size=18) ns3::EthernetTrailer (fcs=0)
- 0.254673 /NodeList/4/DeviceList/3/$ns3::CsmaNetDevice/TxQueue/Dequeue ns3::EthernetHeader ( length/type=0x806, source=00:00:00:00:00:0b, destination=00:00:00:00:00:0c) ns3::ArpHeader (hardware type: Ethernet reply source mac: 00-06-00:00:00:00:00:0b source ipv4: 192.168.6.1 dest mac: 00-06-00:00:00:00:00:0c dest ipv4: 192.168.6.2) Payload (size=18) ns3::EthernetTrailer (fcs=0)
r 0.25493 /NodeList/1/DeviceList/2/$ns3::CsmaNetDevice/MacRx ns3::EthernetHeader ( length/type=0x806, source=00:00:00:00:00:06, destination=00:00:00:00:00:05) ns3::ArpHeader (hardware type: Ethernet reply source mac: 00-06-00:00:00:00:00:06 source ipv4: 192.168.3.2 dest mac: 00-06-00:00:00:00:00:05 dest ipv4: 192.168.3.1) Payload (size=18) ns3::EthernetTrailer (fcs=0)
+ 0.25493 /NodeList/1/DeviceList/2/$ns3::CsmaNetDevice/TxQueue/Enqueue ns3::EthernetHeader ( length/type=0x800, source=00:00:00:00:00:05, destination=00:00:00:00:00:06) ns3::Ipv4Header (tos 0x0 DSCP Default ECN Not-ECT ttl 255 id 0 protocol 17 offset (bytes) 0 flags [none] length: 72 192.168.3.1 > 192.168.3.2) ns3::UdpHeader (length: 52 520 > 520) ns3::RipHeader (command 2 | prefix 192.168.1.0/24 Metric 1 Tag 0 Next Hop 0.0.0.0 | prefix 192.168.3.0/24 Metric 16 Tag 0 Next Hop 0.0.0.0) ns3::EthernetTrailer (fcs=0)
- 0.25493 /NodeList/1/DeviceList/2/$ns3::CsmaNetDevice/TxQueue/Dequeue ns3::EthernetHeader ( length/type=0x800, source=00:00:00:00:00:05, destination=00:00:00:00:00:06) ns3::Ipv4Header (tos 0x0 DSCP Default ECN Not-ECT ttl 255 id 0 protocol 17 offset (bytes) 0 flags [none] length: 72 192.168.3.1 > 192.168.3.2) ns3::UdpHeader (length: 52 520 > 520) ns3::RipHeader (command 2 | prefix 192.168.1.0/24 Metric 1 Tag 0 Next Hop 0.0.0.0 | prefix 192.168.3.0/24 Metric 16 Tag 0 Next Hop 0.0.0.0) ns3::EthernetTrailer (fcs=0)
+ 0.258545 /NodeList/1/DeviceList/1/$ns3::CsmaNetDevice/TxQueue/Enqueue ns3::EthernetHeader ( length/type=0x800, source=00:00:00:00:00:02, destination=01:00:5e:00:00:09) ns3::Ipv4Header (tos 0x0 DSCP Default ECN Not-ECT ttl 1 id 0 protocol 17 offset (bytes) 0 flags [none] length: 52 192.168.1.2 > 224.0.0.9) ns3::UdpHeader (length: 32 520 > 520) ns3::RipHeader (command 1 | prefix 0.0.0.0/0 Metric 16 Tag 0 Next Hop 0.0.0.0) ns3::EthernetTrailer (fcs=0)
- 0.258545 /NodeList/1/DeviceList/1/$ns3::CsmaNetDevice/TxQueue/Dequeue ns3::EthernetHeader ( length/type=0x800, source=00:00:00:00:00:02, destination=01:00:5e:00:00:09) ns3::Ipv4Header (tos 0x0 DSCP Default ECN Not-ECT ttl 1 id 0 protocol 17 offset (bytes) 0 flags [none] length: 52 192.168.1.2 > 224.0.0.9) ns3::UdpHeader (length: 32 520 > 520) ns3::RipHeader (command 1 | prefix 0.0.0.0/0 Metric 16 Tag 0 Next Hop 0.0.0.0) ns3::EthernetTrailer (fcs=0)
+ 0.258545 /NodeList/1/DeviceList/2/$ns3::CsmaNetDevice/TxQueue/Enqueue ns3::EthernetHeader ( length/type=0x800, source=00:00:00:00:00:05, destination=01:00:5e:00:00:09) ns3::Ipv4Header (tos 0x0 DSCP Default ECN Not-ECT ttl 1 id 0 protocol 17 offset (bytes) 0 flags [none] length: 52 192.168.3.1 > 224.0.0.9) ns3::UdpHeader (length: 32 520 > 520) ns3::RipHeader (command 1 | prefix 0.0.0.0/0 Metric 16 Tag 0 Next Hop 0.0.0.0) ns3::EthernetTrailer (fcs=0)
- 0.258545 /NodeList/1/DeviceList/2/$ns3::CsmaNetDevice/TxQueue/Dequeue ns3::EthernetHeader ( length/type=0x800, source=00:00:00:00:00:05, destination=01:00:5e:00:00:09) ns3::Ipv4Header (tos 0x0 DSCP Default ECN Not-ECT ttl 1 id 0 protocol 17 offset (bytes) 0 flags [none] length: 52 192.168.3.1 > 224.0.0.9) ns3::UdpHeader (length: 32 520 > 520) ns3::RipHeader (command 1 | prefix 0.0.0.0/0 Metric 16 Tag 0 Next Hop 0.0.0.0) ns3::EthernetTrailer (fcs=0)
r 0.25893 /NodeList/5/DeviceList/1/$ns3::CsmaNetDevice/MacRx ns3::EthernetHeader ( length/type=0x806, source=00:00:00:00:00:0b, destination=00:00:00:00:00:0c) ns3::ArpHeader (hardware type: Ethernet reply source mac: 00-06-00:00:00:00:00:0b source ipv4: 192.168.6.1 dest mac: 00-06-00:00:00:00:00:0c dest ipv4: 192.168.6.2) Payload (size=18) ns3::EthernetTrailer (fcs=0)
+ 0.25893 /NodeList/5/DeviceList/1/$ns3::CsmaNetDevice/TxQueue/Enqueue ns3::EthernetHeader ( length/type=0x800, source=00:00:00:00:00:0c, destination=00:00:00:00:00:0b) ns3::Ipv4Header (tos 0x0 DSCP Default ECN Not-ECT ttl 255 id 0 protocol 17 offset (bytes) 0 flags [none] length: 52 192.168.6.2 > 192.168.6.1) ns3::UdpHeader (length: 32 520 > 520) ns3::RipHeader (command 2 | prefix 192.168.6.0/24 Metric 16 Tag 0 Next Hop 0.0.0.0) ns3::EthernetTrailer (fcs=0)
- 0.25893 /NodeList/5/DeviceList/1/$ns3::CsmaNetDevice/TxQueue/Dequeue ns3::EthernetHeader ( length/type=0x800, source=00:00:00:00:00:0c, destination=00:00:00:00:00:0b) ns3::Ipv4Header (tos 0x0 DSCP Default ECN Not-ECT ttl 255 id 0 protocol 17 offset (bytes) 0 flags [none] length: 52 192.168.6.2 > 192.168.6.1) ns3::UdpHeader (length: 32 520 > 520) ns3::RipHeader (command 2 | prefix 192.168.6.0/24 Metric 16 Tag 0 Next Hop 0.0.0.0) ns3::EthernetTrailer (fcs=0)
r 0.259291 /NodeList/4/DeviceList/1/$ns3::CsmaNetDevice/MacRx ns3::EthernetHeader ( length/type=0x800, source=00:00:00:00:00:05, destination=00:00:00:00:00:06) ns3::Ipv4Header (tos 0x0 DSCP Default ECN Not-ECT ttl 255 id 0 protocol 17 offset (bytes) 0 flags [none] length: 72 192.168.3.1 > 192.168.3.2) ns3::UdpHeader (length: 52 520 > 520) ns3::RipHeader (command 2 | prefix 192.168.1.0/24 Metric 1 Tag 0 Next Hop 0.0.0.0 | prefix 192.168.3.0/24 Metric 16 Tag 0 Next Hop 0.0.0.0) ns3::EthernetTrailer (fcs=0)
r 0.262825 /NodeList/0/DeviceList/1/$ns3::CsmaNetDevice/MacRx ns3::EthernetHeader ( length/type=0x800, source=00:00:00:00:00:02, destination=01:00:5e:00:00:09) ns3::Ipv4Header (tos 0x0 DSCP Default ECN Not-ECT ttl 1 id 0 protocol 17 offset (bytes) 0 flags [none] length: 52 192.168.1.2 > 224.0.0.9) ns3::UdpHeader (length: 32 520 > 520) ns3::RipHeader (command 1 | prefix 0.0.0.0/0 Metric 16 Tag 0 Next Hop 0.0.0.0) ns3::EthernetTrailer (fcs=0)
r 0.263211 /NodeList/4/DeviceList/3/$ns3::CsmaNetDevice/MacRx ns3::EthernetHeader ( length/type=0x800, source=00:00:00:00:00:0c, destination=00:00:00:00:00:0b) ns3::Ipv4Header (tos 0x0 DSCP Default ECN Not-ECT ttl 255 id 0 protocol 17 offset (bytes) 0 flags [none] length: 52 192.168.6.2 > 192.168.6.1) ns3::UdpHeader (length: 32 520 > 520) ns3::RipHeader (command 2 | prefix 192.168.6.0/24 Metric 16 Tag 0 Next Hop 0.0.0.0) ns3::EthernetTrailer (fcs=0)
r 0.263925 /NodeList/4/DeviceList/1/$ns3::CsmaNetDevice/MacRx ns3::EthernetHeader ( length/type=0x800, source=00:00:00:00:00:05, destination=01:00:5e:00:00:09) ns3::Ipv4Header (tos 0x0 DSCP Default ECN Not-ECT ttl 1 id 0 protocol 17 offset (bytes) 0 flags [none] length: 52 192.168.3.1 > 224.0.0.9) ns3::UdpHeader (length: 32 520 > 520) ns3::RipHeader (command 1 | prefix 0.0.0.0/0 Metric 16 Tag 0 Next Hop 0.0.0.0) ns3::EthernetTrailer (fcs=0)
+ 0.269925 /NodeList/4/DeviceList/1/$ns3::CsmaNetDevice/TxQueue/Enqueue ns3::EthernetHeader ( length/type=0x806, source=00:00:00:00:00:06, destination=ff:ff:ff:ff:ff:ff) ns3::ArpHeader (hardware type: Ethernet request source mac: 00-06-00:00:00:00:00:06 source ipv4: 192.168.3.2 dest ipv4: 192.168.3.1) Payload (size=18) ns3::EthernetTrailer (fcs=0)
- 0.269925 /NodeList/4/DeviceList/1/$ns3::CsmaNetDevice/TxQueue/Dequeue ns3::EthernetHeader ( length/type=0x806, source=00:00:00:00:00:06, destination=ff:ff:ff:ff:ff:ff) ns3::ArpHeader (hardware type: Ethernet request source mac: 00-06-00:00:00:00:00:06 source ipv4: 192.168.3.2 dest ipv4: 192.168.3.1) Payload (size=18) ns3::EthernetTrailer (fcs=0)
+ 0.270825 /NodeList/0/DeviceList/1/$ns3::CsmaNetDevice/TxQueue/Enqueue ns3::EthernetHeader ( length/type=0x806, source=00:00:00:00:00:01, destination=ff:ff:ff:ff:ff:ff) ns3::ArpHeader (hardware type: Ethernet request source mac: 00-06-00:00:00:00:00:01 source ipv4: 192.168.1.1 dest ipv4: 192.168.1.2) Payload (size=18) ns3::EthernetTrailer (fcs=0)
- 0.270825 /NodeList/0/DeviceList/1/$ns3::CsmaNetDevice/TxQueue/Dequeue ns3::EthernetHeader ( length/type=0x806, source=00:00:00:00:00:01, destination=ff:ff:ff:ff:ff:ff) ns3::ArpHeader (hardware type: Ethernet request source mac: 00-06-00:00:00:00:00:01 source ipv4: 192.168.1.1 dest ipv4: 192.168.1.2) Payload (size=18) ns3::EthernetTrailer (fcs=0)
r 0.274181 /NodeList/1/DeviceList/2/$ns3::CsmaNetDevice/MacRx ns3::EthernetHeader ( length/type=0x806, source=00:00:00:00:00:06, destination=ff:ff:ff:ff:ff:ff) ns3::ArpHeader (hardware type: Ethernet request source mac: 00-06-00:00:00:00:00:06 source ipv4: 192.168.3.2 dest ipv4: 192.168.3.1) Payload (size=18) ns3::EthernetTrailer (fcs=0)
+ 0.274181 /NodeList/1/DeviceList/2/$ns3::CsmaNetDevice/TxQueue/Enqueue ns3::EthernetHeader ( length/type=0x806, source=00:00:00:00:00:05, destination=00:00:00:00:00:06) ns3::ArpHeader (hardware type: Ethernet reply source mac: 00-06-00:00:00:00:00:05 source ipv4: 192.168.3.1 dest mac: 00-06-00:00:00:00:00:06 dest ipv4: 192.168.3.2) Payload (size=18) ns3::EthernetTrailer (fcs=0)
- 0.274181 /NodeList/1/DeviceList/2/$ns3::CsmaNetDevice/TxQueue/Dequeue ns3::EthernetHeader ( length/type=0x806, source=00:00:00:00:00:05, destination=00:00:00:00:00:06) ns3::ArpHeader (hardware type: Ethernet reply source mac: 00-06-00:00:00:00:00:05 source ipv4: 192.168.3.1 dest mac: 00-06-00:00:00:00:00:06 dest ipv4: 192.168.3.2) Payload (size=18) ns3::EthernetTrailer (fcs=0)
r 0.275081 /NodeList/1/DeviceList/1/$ns3::CsmaNetDevice/MacRx ns3::EthernetHeader ( length/type=0x806, source=00:00:00:00:00:01, destination=ff:ff:ff:ff:ff:ff) ns3::ArpHeader (hardware type: Ethernet request source mac: 00-06-00:00:00:00:00:01 source ipv4: 192.168.1.1 dest ipv4: 192.168.1.2) Payload (size=18) ns3::EthernetTrailer (fcs=0)
+ 0.275081 /NodeList/1/DeviceList/1/$ns3::CsmaNetDevice/TxQueue/Enqueue ns3::EthernetHeader ( length/type=0x806, source=00:00:00:00:00:02, destination=00:00:00:00:00:01) ns3::ArpHeader (hardware type: Ethernet reply source mac: 00-06-00:00:00:00:00:02 source ipv4: 192.168.1.2 dest mac: 00-06-00:00:00:00:00:01 dest ipv4: 192.168.1.1) Payload (size=18) ns3::EthernetTrailer (fcs=0)
- 0.275081 /NodeList/1/DeviceList/1/$ns3::CsmaNetDevice/TxQueue/Dequeue ns3::EthernetHeader ( length/type=0x806, source=00:00:00:00:00:02, destination=00:00:00:00:00:01) ns3::ArpHeader (hardware type: Ethernet reply source mac: 00-06-00:00:00:00:00:02 source ipv4: 192.168.1.2 dest mac: 00-06-00:00:00:00:00:01 dest ipv4: 192.168.1.1) Payload (size=18) ns3::EthernetTrailer (fcs=0)
r 0.278438 /NodeList/4/DeviceList/1/$ns3::CsmaNetDevice/MacRx ns3::EthernetHeader ( length/type=0x806, source=00:00:00:00:00:05, destination=00:00:00:00:00:06) ns3::ArpHeader (hardware type: Ethernet reply source mac: 00-06-00:00:00:00:00:05 source ipv4: 192.168.3.1 dest mac: 00-06-00:00:00:00:00:06 dest ipv4: 192.168.3.2) Payload (size=18) ns3::EthernetTrailer (fcs=0)
+ 0.278438 /NodeList/4/DeviceList/1/$ns3::CsmaNetDevice/TxQueue/Enqueue ns3::EthernetHeader ( length/type=0x800, source=00:00:00:00:00:06, destination=00:00:00:00:00:05) ns3::Ipv4Header (tos 0x0 DSCP Default ECN Not-ECT ttl 255 id 0 protocol 17 offset (bytes) 0 flags [none] length: 132 192.168.3.2 > 192.168.3.1) ns3::UdpHeader (length: 112 520 > 520) ns3::RipHeader (command 2 | prefix 192.168.1.0/24 Metric 16 Tag 0 Next Hop 0.0.0.0 | prefix 192.168.4.0/24 Metric 2 Tag 0 Next Hop 0.0.0.0 | prefix 192.168.3.0/24 Metric 16 Tag 0 Next Hop 0.0.0.0 | prefix 192.168.5.0/24 Metric 1 Tag 0 Next Hop 0.0.0.0 | prefix 192.168.6.0/24 Metric 1 Tag 0 Next Hop 0.0.0.0) ns3::EthernetTrailer (fcs=0)
- 0.278438 /NodeList/4/DeviceList/1/$ns3::CsmaNetDevice/TxQueue/Dequeue ns3::EthernetHeader ( length/type=0x800, source=00:00:00:00:00:06, destination=00:00:00:00:00:05) ns3::Ipv4Header (tos 0x0 DSCP Default ECN Not-ECT ttl 255 id 0 protocol 17 offset (bytes) 0 flags [none] length: 132 192.168.3.2 > 192.168.3.1) ns3::UdpHeader (length: 112 520 > 520) ns3::RipHeader (command 2 | prefix 192.168.1.0/24 Metric 16 Tag 0 Next Hop 0.0.0.0 | prefix 192.168.4.0/24 Metric 2 Tag 0 Next Hop 0.0.0.0 | prefix 192.168.3.0/24 Metric 16 Tag 0 Next Hop 0.0.0.0 | prefix 192.168.5.0/24 Metric 1 Tag 0 Next Hop 0.0.0.0 | prefix 192.168.6.0/24 Metric 1 Tag 0 Next Hop 0.0.0.0) ns3::EthernetTrailer (fcs=0)
r 0.279338 /NodeList/0/DeviceList/1/$ns3::CsmaNetDevice/MacRx ns3::EthernetHeader ( length/type=0x806, source=00:00:00:00:00:02, destination=00:00:00:00:00:01) ns3::ArpHeader (hardware type: Ethernet reply source mac: 00-06-00:00:00:00:00:02 source ipv4: 192.168.1.2 dest mac: 00-06-00:00:00:00:00:01 dest ipv4: 192.168.1.1) Payload (size=18) ns3::EthernetTrailer (fcs=0)
+ 0.279338 /NodeList/0/DeviceList/1/$ns3::CsmaNetDevice/TxQueue/Enqueue ns3::EthernetHeader ( length/type=0x800, source=00:00:00:00:00:01, destination=00:00:00:00:00:02) ns3::Ipv4Header (tos 0x0 DSCP Default ECN Not-ECT ttl 255 id 0 protocol 17 offset (bytes) 0 flags [none] length: 72 192.168.1.1 > 192.168.1.2) ns3::UdpHeader (length: 52 520 > 520) ns3::RipHeader (command 2 | prefix 192.168.1.0/24 Metric 16 Tag 0 Next Hop 0.0.0.0 | prefix 192.168.2.0/24 Metric 1 Tag 0 Next Hop 0.0.0.0) ns3::EthernetTrailer (fcs=0)
- 0.279338 /NodeList/0/DeviceList/1/$ns3::CsmaNetDevice/TxQueue/Dequeue ns3::EthernetHeader ( length/type=0x800, source=00:00:00:00:00:01, destination=00:00:00:00:00:02) ns3::Ipv4Header (tos 0x0 DSCP Default ECN Not-ECT ttl 255 id 0 protocol 17 offset (bytes) 0 flags [none] length: 72 192.168.1.1 > 192.168.1.2) ns3::UdpHeader (length: 52 520 > 520) ns3::RipHeader (command 2 | prefix 192.168.1.0/24 Metric 16 Tag 0 Next Hop 0.0.0.0 | prefix 192.168.2.0/24 Metric 1 Tag 0 Next Hop 0.0.0.0) ns3::EthernetTrailer (fcs=0)
r 0.283039 /NodeList/1/DeviceList/2/$ns3::CsmaNetDevice/MacRx ns3::EthernetHeader ( length/type=0x800, source=00:00:00:00:00:06, destination=00:00:00:00:00:05) ns3::Ipv4Header (tos 0x0 DSCP Default ECN Not-ECT ttl 255 id 0 protocol 17 offset (bytes) 0 flags [none] length: 132 192.168.3.2 > 192.168.3.1) ns3::UdpHeader (length: 112 520 > 520) ns3::RipHeader (command 2 | prefix 192.168.1.0/24 Metric 16 Tag 0 Next Hop 0.0.0.0 | prefix 192.168.4.0/24 Metric 2 Tag 0 Next Hop 0.0.0.0 | prefix 192.168.3.0/24 Metric 16 Tag 0 Next Hop 0.0.0.0 | prefix 192.168.5.0/24 Metric 1 Tag 0 Next Hop 0.0.0.0 | prefix 192.168.6.0/24 Metric 1 Tag 0 Next Hop 0.0.0.0) ns3::EthernetTrailer (fcs=0)
r 0.283699 /NodeList/1/DeviceList/1/$ns3::CsmaNetDevice/MacRx ns3::EthernetHeader ( length/type=0x800, source=00:00:00:00:00:01, destination=00:00:00:00:00:02) ns3::Ipv4Header (tos 0x0 DSCP Default ECN Not-ECT ttl 255 id 0 protocol 17 offset (bytes) 0 flags [none] length: 72 192.168.1.1 > 192.168.1.2) ns3::UdpHeader (length: 52 520 > 520) ns3::RipHeader (command 2 | prefix 192.168.1.0/24 Metric 16 Tag 0 Next Hop 0.0.0.0 | prefix 192.168.2.0/24 Metric 1 Tag 0 Next Hop 0.0.0.0) ns3::EthernetTrailer (fcs=0)
+ 0.37024 /NodeList/3/DeviceList/1/$ns3::CsmaNetDevice/TxQueue/Enqueue ns3::EthernetHeader ( length/type=0x800, source=00:00:00:00:00:08, destination=01:00:5e:00:00:09) ns3::Ipv4Header (tos 0x0 DSCP Default ECN Not-ECT ttl 1 id 0 protocol 17 offset (bytes) 0 flags [none] length: 52 192.168.4.2 > 224.0.0.9) ns3::UdpHeader (length: 32 520 > 520) ns3::RipHeader (command 1 | prefix 0.0.0.0/0 Metric 16 Tag 0 Next Hop 0.0.0.0) ns3::EthernetTrailer (fcs=0)
- 0.37024 /NodeList/3/DeviceList/1/$ns3::CsmaNetDevice/TxQueue/Dequeue ns3::EthernetHeader ( length/type=0x800, source=00:00:00:00:00:08, destination=01:00:5e:00:00:09) ns3::Ipv4Header (tos 0x0 DSCP Default ECN Not-ECT ttl 1 id 0 protocol 17 offset (bytes) 0 flags [none] length: 52 192.168.4.2 > 224.0.0.9) ns3::UdpHeader (length: 32 520 > 520) ns3::RipHeader (command 1 | prefix 0.0.0.0/0 Metric 16 Tag 0 Next Hop 0.0.0.0) ns3::EthernetTrailer (fcs=0)
+ 0.37024 /NodeList/3/DeviceList/2/$ns3::CsmaNetDevice/TxQueue/Enqueue ns3::EthernetHeader ( length/type=0x800, source=00:00:00:00:00:09, destination=01:00:5e:00:00:09) ns3::Ipv4Header (tos 0x0 DSCP Default ECN Not-ECT ttl 1 id 0 protocol 17 offset (bytes) 0 flags [none] length: 52 192.168.5.1 > 224.0.0.9) ns3::UdpHeader (length: 32 520 > 520) ns3::RipHeader (command 1 | prefix 0.0.0.0/0 Metric 16 Tag 0 Next Hop 0.0.0.0) ns3::EthernetTrailer (fcs=0)
- 0.37024 /NodeList/3/DeviceList/2/$ns3::CsmaNetDevice/TxQueue/Dequeue ns3::EthernetHeader ( length/type=0x800, source=00:00:00:00:00:09, destination=01:00:5e:00:00:09) ns3::Ipv4Header (tos 0x0 DSCP Default ECN Not-ECT ttl 1 id 0 protocol 17 offset (bytes) 0 flags [none] length: 52 192.168.5.1 > 224.0.0.9) ns3::UdpHeader (length: 32 520 > 520) ns3::RipHeader (command 1 | prefix 0.0.0.0/0 Metric 16 Tag 0 Next Hop 0.0.0.0) ns3::EthernetTrailer (fcs=0)
r 0.372352 /NodeList/2/DeviceList/2/$ns3::CsmaNetDevice/MacRx ns3::EthernetHeader ( length/type=0x800, source=00:00:00:00:00:08, destination=01:00:5e:00:00:09) ns3::Ipv4Header (tos 0x0 DSCP Default ECN Not-ECT ttl 1 id 0 protocol 17 offset (bytes) 0 flags [none] length: 52 192.168.4.2 > 224.0.0.9) ns3::UdpHeader (length: 32 520 > 520) ns3::RipHeader (command 1 | prefix 0.0.0.0/0 Metric 16 Tag 0 Next Hop 0.0.0.0) ns3::EthernetTrailer (fcs=0)
r 0.372352 /NodeList/4/DeviceList/2/$ns3::CsmaNetDevice/MacRx ns3::EthernetHeader ( length/type=0x800, source=00:00:00:00:00:09, destination=01:00:5e:00:00:09) ns3::Ipv4Header (tos 0x0 DSCP Default ECN Not-ECT ttl 1 id 0 protocol 17 offset (bytes) 0 flags [none] length: 52 192.168.5.1 > 224.0.0.9) ns3::UdpHeader (length: 32 520 > 520) ns3::RipHeader (command 1 | prefix 0.0.0.0/0 Metric 16 Tag 0 Next Hop 0.0.0.0) ns3::EthernetTrailer (fcs=0)
+ 0.372352 /NodeList/4/DeviceList/2/$ns3::CsmaNetDevice/TxQueue/Enqueue ns3::EthernetHeader ( length/type=0x806, source=00:00:00:00:00:0a, destination=ff:ff:ff:ff:ff:ff) ns3::ArpHeader (hardware type: Ethernet request source mac: 00-06-00:00:00:00:00:0a source ipv4: 192.168.5.2 dest ipv4: 192.168.5.1) Payload (size=18) ns3::EthernetTrailer (fcs=0)
- 0.372352 /NodeList/4/DeviceList/2/$ns3::CsmaNetDevice/TxQueue/Dequeue ns3::EthernetHeader ( length/type=0x806, source=00:00:00:00:00:0a, destination=ff:ff:ff:ff:ff:ff) ns3::ArpHeader (hardware type: Ethernet request source mac: 00-06-00:00:00:00:00:0a source ipv4: 192.168.5.2 dest ipv4: 192.168.5.1) Payload (size=18) ns3::EthernetTrailer (fcs=0)
r 0.374454 /NodeList/3/DeviceList/2/$ns3::CsmaNetDevice/MacRx ns3::EthernetHeader ( length/type=0x806, source=00:00:00:00:00:0a, destination=ff:ff:ff:ff:ff:ff) ns3::ArpHeader (hardware type: Ethernet request source mac: 00-06-00:00:00:00:00:0a source ipv4: 192.168.5.2 dest ipv4: 192.168.5.1) Payload (size=18) ns3::EthernetTrailer (fcs=0)
+ 0.374454 /NodeList/3/DeviceList/2/$ns3::CsmaNetDevice/TxQueue/Enqueue ns3::EthernetHeader ( length/type=0x806, source=00:00:00:00:00:09, destination=00:00:00:00:00:0a) ns3::ArpHeader (hardware type: Ethernet reply source mac: 00-06-00:00:00:00:00:09 source ipv4: 192.168.5.1 dest mac: 00-06-00:00:00:00:00:0a dest ipv4: 192.168.5.2) Payload (size=18) ns3::EthernetTrailer (fcs=0)